C     ONCVPSP-4.0.1  r_core=   1.50622   1.50622
      6.0000      4.0000      190902    zatom,zion,pspd
     8       2   1     4   600     0    pspcod,pspxc,lmax,lloc,mmax,r2well
  5.99000000  0.00000000  0.00000000    rchrg fchrg qchrg
     2     2     0     0     0    nproj
     1     1           extension_switch
   0                         4.7638798668923E+00  5.1538921478602E-01
     1  0.0000000000000E+00  1.5517687135258E-10  1.9080820257145E-10
     2  1.0000000000000E-02  6.9003151512967E-02 -3.6857734298610E-02
     3  2.0000000000000E-02  1.3784648336487E-01 -7.3428824838923E-02
     4  3.0000000000000E-02  2.0637081165954E-01 -1.0942899433543E-01
     5  4.0000000000000E-02  2.7441822182632E-01 -1.4457867970000E-01
     6  5.0000000000000E-02  3.4183269772892E-01 -1.7860534230940E-01
     7  6.0000000000000E-02  4.0846074399011E-01 -2.1124572218881E-01
     8  7.0000000000000E-02  4.7415199907717E-01 -2.4224801761611E-01
     9  8.0000000000000E-02  5.3875983653793E-01 -2.7137397184238E-01
    10  9.0000000000000E-02  6.0214195159648E-01 -2.9840084888686E-01
    11  1.0000000000000E-01  6.6416093011927E-01 -3.2312328071411E-01
    12  1.1000000000000E-01  7.2468479675648E-01 -3.4535496855381E-01
    13  1.2000000000000E-01  7.8358753885988E-01 -3.6493022169763E-01
    14  1.3000000000000E-01  8.4074960258807E-01 -3.8170531782028E-01
    15  1.4000000000000E-01  8.9605835744478E-01 -3.9555966974238E-01
    16  1.5000000000000E-01  9.4940852536635E-01 -4.0639678459636E-01
    17  1.6000000000000E-01  1.0007025703923E+00 -4.1414500258981E-01
    18  1.7000000000000E-01  1.0498510449285E+00 -4.1875800399501E-01
    19  1.8000000000000E-01  1.0967728886548E+00 -4.2021507463861E-01
    20  1.9000000000000E-01  1.1413956762464E+00 -4.1852112202654E-01
    21  2.0000000000000E-01  1.1836558102794E+00 -4.1370643631757E-01
    22  2.1000000000000E-01  1.2234986559779E+00 -4.0582619264990E-01
    23  2.2000000000000E-01  1.2608786148365E+00 -3.9495969381936E-01
    24  2.3000000000000E-01  1.2957591346242E+00 -3.8120935499040E-01
    25  2.4000000000000E-01  1.3281126538327E+00 -3.6469943496984E-01
    26  2.5000000000000E-01  1.3579204792785E+00 -3.4557452156382E-01
    27  2.6000000000000E-01  1.3851725962972E+00 -3.2399778163494E-01
    28  2.7000000000000E-01  1.4098674117649E+00 -3.0014898964356E-01
    29  2.8000000000000E-01  1.4320114310457E+00 -2.7422235165162E-01
    30  2.9000000000000E-01  1.4516188708735E+00 -2.4642414493949E-01
    31  3.0000000000000E-01  1.4687112111255E+00 -2.1697019648845E-01
    32  3.1000000000000E-01  1.4833166894058E+00 -1.8608322655707E-01
    33  3.2000000000000E-01  1.4954697433301E+00 -1.5399008637385E-01
    34  3.3000000000000E-01  1.5052104063469E+00 -1.2091892152407E-01
    35  3.4000000000000E-01  1.5125836638481E+00 -8.7096294869937E-02
    36  3.5000000000000E-01  1.5176387771770E+00 -5.2744304752888E-02
    37  3.6000000000000E-01  1.5204285839253E+00 -1.8077735733979E-02
    38  3.7000000000000E-01  1.5210087835951E+00  1.6698719817091E-02
    39  3.8000000000000E-01  1.5194372182786E+00  5.1393130415284E-02
    40  3.9000000000000E-01  1.5157731584514E+00  8.5828845543861E-02
    41  4.0000000000000E-01  1.5100766042712E+00  1.1984682877745E-01
    42  4.1000000000000E-01  1.5024076129198E+00  1.5330776672454E-01
    43  4.2000000000000E-01  1.4928256624911E+00  1.8609391830086E-01
    44  4.3000000000000E-01  1.4813890627274E+00  2.1811067118472E-01
    45  4.4000000000000E-01  1.4681544225155E+00  2.4928777524351E-01
    46  4.5000000000000E-01  1.4531761834829E+00  2.7958022624242E-01
    47  4.6000000000000E-01  1.4365062282822E+00  3.0896877722441E-01
    48  4.7000000000000E-01  1.4181935712199E+00  3.3746005954486E-01
    49  4.8000000000000E-01  1.3982841377867E+00  3.6508630060552E-01
    50  4.9000000000000E-01  1.3768206383934E+00  3.9190463080292E-01
    51  5.0000000000000E-01  1.3538425402173E+00  4.1799597801383E-01
    52  5.1000000000000E-01  1.3293861395497E+00  4.4346355400925E-01
    53  5.2000000000000E-01  1.3034847354154E+00  4.6843094343045E-01
    54  5.3000000000000E-01  1.2761689035401E+00  4.9303981228480E-01
    55  5.4000000000000E-01  1.2474668680009E+00  5.1744725922650E-01
    56  5.5000000000000E-01  1.2174049661277E+00  5.4182283907584E-01
    57  5.6000000000000E-01  1.1860082004711E+00  5.6634529399817E-01
    58  5.7000000000000E-01  1.1533008699336E+00  5.9119903340304E-01
    59  5.8000000000000E-01  1.1193072705213E+00  6.1657040883588E-01
    60  5.9000000000000E-01  1.0840524546246E+00  6.4264383481563E-01
    61  6.0000000000000E-01  1.0475630363341E+00  6.6959781063041E-01
    62  6.1000000000000E-01  1.0098680290426E+00  6.9760090145116E-01
    63  6.2000000000000E-01  9.7099970052770E-01  7.2680773967924E-01
    64  6.3000000000000E-01  9.3099442986165E-01  7.5735510914425E-01
    65  6.4000000000000E-01  8.8989354988072E-01  7.8935817555009E-01
    66  6.5000000000000E-01  8.4774415858868E-01  8.2290692639222E-01
    67  6.6000000000000E-01  8.0459988277502E-01  8.5806288240477E-01
    68  6.7000000000000E-01  7.6052157731386E-01  8.9485614043015E-01
    69  6.8000000000000E-01  7.1557794407780E-01  9.3328280443664E-01
    70  6.9000000000000E-01  6.6984605515310E-01  9.7330285726286E-01
    71  7.0000000000000E-01  6.2341176607493E-01  1.0148385205732E+00
    72  7.1000000000000E-01  5.7637000610582E-01  1.0577731445200E+00
    73  7.2000000000000E-01  5.2882493414169E-01  1.1019506617952E+00
    74  7.3000000000000E-01  4.8088995063090E-01  1.1471756331943E+00
    75  7.4000000000000E-01  4.3268755790817E-01  1.1932139036173E+00
    76  7.5000000000000E-01  3.8434906355113E-01  1.2397938786922E+00
    77  7.6000000000000E-01  3.3601412372919E-01  1.2866084230664E+00
    78  7.7000000000000E-01  2.8783012599949E-01  1.3333173719840E+00
    79  7.8000000000000E-01  2.3995141357391E-01  1.3795506382156E+00
    80  7.9000000000000E-01  1.9253835569466E-01  1.4249118868567E+00
    81  8.0000000000000E-01  1.4575627137134E-01  1.4689827411332E+00
    82  8.1000000000000E-01  9.9774216307620E-02  1.5113274732815E+00
    83  8.2000000000000E-01  5.4763645335867E-02  1.5514981259727E+00
    84  8.3000000000000E-01  1.0896965041576E-02  1.5890400017619E+00
    85  8.4000000000000E-01 -3.1654006546672E-02  1.6234974508117E+00
    86  8.5000000000000E-01 -7.2719654341312E-02  1.6544198807934E+00
    87  8.6000000000000E-01 -1.1213423405557E-01  1.6813679075309E+00
    88  8.7000000000000E-01 -1.4973757148385E-01  1.7039195607343E+00
    89  8.8000000000000E-01 -1.8537677000212E-01  1.7216764561520E+00
    90  8.9000000000000E-01 -2.1890790227929E-01  1.7342698437458E+00
    91  9.0000000000000E-01 -2.5019766174044E-01  1.7413664411013E+00
    92  9.1000000000000E-01 -2.7912494924565E-01  1.7426739622724E+00
    93  9.2000000000000E-01 -3.0558237075339E-01  1.7379462546362E+00
    94  9.3000000000000E-01 -3.2947762242959E-01  1.7269879600961E+00
    95  9.4000000000000E-01 -3.5073474073800E-01  1.7096586220856E+00
    96  9.5000000000000E-01 -3.6929519649579E-01  1.6858761662445E+00
    97  9.6000000000000E-01 -3.8511881368553E-01  1.6556196902882E+00
    98  9.7000000000000E-01 -3.9818449595761E-01  1.6189315073763E+00
    99  9.8000000000000E-01 -4.0849074620906E-01  1.5759183970928E+00
   100  9.9000000000000E-01 -4.1605596735255E-01  1.5267520288487E+00
   101  1.0000000000000E+00 -4.2091853535469E-01  1.4716685339567E+00
   102  1.0100000000000E+00 -4.2313663878134E-01  1.4109672146415E+00
   103  1.0200000000000E+00 -4.2278788239536E-01  1.3450083906693E+00
   104  1.0300000000000E+00 -4.1996865575853E-01  1.2742103969189E+00
   105  1.0400000000000E+00 -4.1479327123867E-01  1.1990457578765E+00
   106  1.0500000000000E+00 -4.0739287926662E-01  1.1200365775312E+00
   107  1.0600000000000E+00 -3.9791417206937E-01  1.0377491952862E+00
   108  1.0700000000000E+00 -3.8651789036553E-01  9.5278817006107E-01
   109  1.0800000000000E+00 -3.7337715060566E-01  8.6578966560719E-01
   110  1.0900000000000E+00 -3.5867561320897E-01  7.7741431995398E-01
   111  1.1000000000000E+00 -3.4260551484914E-01  6.8833969072662E-01
   112  1.1100000000000E+00 -3.2536559012998E-01  5.9925237565916E-01
   113  1.1200000000000E+00 -3.0715890991947E-01  5.1083991381935E-01
   114  1.1300000000000E+00 -2.8819066515514E-01  4.2378257778575E-01
   115  1.1400000000000E+00 -2.6866592605130E-01  3.3874517013682E-01
   116  1.1500000000000E+00 -2.4878740731930E-01  2.5636893909138E-01
   117  1.1600000000000E+00 -2.2875327023085E-01  1.7726372791889E-01
   118  1.1700000000000E+00 -2.0875499210533E-01  1.0200047078895E-01
   119  1.1800000000000E+00 -1.8897533308729E-01  3.1104144094291E-02
   120  1.1900000000000E+00 -1.6958642889587E-01 -3.4952723059059E-02
   121  1.2000000000000E+00 -1.5074803659994E-01 -9.5755882427167E-02
   122  1.2100000000000E+00 -1.3260595841346E-01 -1.5095445596386E-01
   123  1.2200000000000E+00 -1.1529066603658E-01 -2.0026520252065E-01
   124  1.2300000000000E+00 -9.8916145254159E-02 -2.4347589461881E-01
   125  1.2400000000000E+00 -8.3578977330800E-02 -2.8044775035503E-01
   126  1.2500000000000E+00 -6.9357670318965E-02 -3.1111687868878E-01
   127  1.2600000000000E+00 -5.6312249732100E-02 -3.3549471035373E-01
   128  1.2700000000000E+00 -4.4484114186749E-02 -3.5366740121926E-01
   129  1.2800000000000E+00 -3.3896157677577E-02 -3.6579420975960E-01
   130  1.2900000000000E+00 -2.4553156136534E-02 -3.7210486530221E-01
   131  1.3000000000000E+00 -1.6442411922262E-02 -3.7289595862828E-01
   132  1.3100000000000E+00 -9.5346459635319E-03 -3.6852640101108E-01
   133  1.3200000000000E+00 -3.7851234832822E-03 -3.5941201175537E-01
   134  1.3300000000000E+00  8.6500438563930E-04 -3.4601930753466E-01
   135  1.3400000000000E+00  4.4871641324576E-03 -3.2885857901615E-01
   136  1.3500000000000E+00  7.1636526366909E-03 -3.0847635128653E-01
   137  1.3600000000000E+00  8.9857859727254E-03 -2.8544733431789E-01
   138  1.3700000000000E+00  1.0051933348799E-02 -2.6036597787094E-01
   139  1.3800000000000E+00  1.0465467150285E-02 -2.3383775178147E-01
   140  1.3900000000000E+00  1.0332661459656E-02 -2.0647027736514E-01
   141  1.4000000000000E+00  9.7605723434320E-03 -1.7886443865357E-01
   142  1.4100000000000E+00  8.8549334212645E-03 -1.5160560245859E-01
   143  1.4200000000000E+00  7.7181019299446E-03 -1.2525508500882E-01
   144  1.4300000000000E+00  6.4470993223920E-03 -1.0034201840694E-01
   145  1.4400000000000E+00  5.1334421621940E-03 -7.7363184656411E-02
   146  1.4500000000000E+00  3.8589837101891E-03 -5.6765797726253E-02
   147  1.4600000000000E+00  2.6918143441057E-03 -3.8929179834159E-02
   148  1.4700000000000E+00  1.6891732646029E-03 -2.4177203232624E-02
   149  1.4800000000000E+00  8.9601418913362E-04 -1.2772956818449E-02
   150  1.4900000000000E+00  3.4310290879527E-04 -4.9012794896012E-03
   151  1.5000000000000E+00  5.3533158980197E-05 -7.7117227520514E-04
   152  1.5100000000000E+00 -5.1185964016440E-06  7.4244971459918E-05
   153  1.5200000000000E+00  1.5263566561625E-06 -2.2028420935904E-05
   154  1.53 -0.  0.
   155  1.54 -0.  0.
   156  1.55  0.  0.
   157  1.56  0.  0.
   158  1.57  0.  0.
   159  1.58  0.  0.
   160  1.59  0.  0.
   161  1.60  0.  0.
   162  1.61  0.  0.
   163  1.62  0.  0.
   164  1.63  0.  0.
   165  1.64  0.  0.
   166  1.65  0.  0.
   167  1.66  0.  0.
   168  1.67  0.  0.
   169  1.68  0.  0.
   170  1.69  0.  0.
   171  1.70  0.  0.
   172  1.71  0.  0.
   173  1.72  0.  0.
   174  1.73  0.  0.
   175  1.74  0.  0.
   176  1.75  0.  0.
   177  1.76  0.  0.
   178  1.77  0.  0.
   179  1.78  0.  0.
   180  1.79  0.  0.
   181  1.80  0.  0.
   182  1.81  0.  0.
   183  1.82  0.  0.
   184  1.83  0.  0.
   185  1.84  0.  0.
   186  1.85  0.  0.
   187  1.86  0.  0.
   188  1.87  0.  0.
   189  1.88  0.  0.
   190  1.89  0.  0.
   191  1.90  0.  0.
   192  1.91  0.  0.
   193  1.92  0.  0.
   194  1.93  0.  0.
   195  1.94  0.  0.
   196  1.95  0.  0.
   197  1.96  0.  0.
   198  1.97  0.  0.
   199  1.98  0.  0.
   200  1.99  0.  0.
   201  2.00  0.  0.
   202  2.01  0.  0.
   203  2.02  0.  0.
   204  2.03  0.  0.
   205  2.04  0.  0.
   206  2.05  0.  0.
   207  2.06  0.  0.
   208  2.07  0.  0.
   209  2.08  0.  0.
   210  2.09  0.  0.
   211  2.10  0.  0.
   212  2.11  0.  0.
   213  2.12  0.  0.
   214  2.13  0.  0.
   215  2.14  0.  0.
   216  2.15  0.  0.
   217  2.16  0.  0.
   218  2.17  0.  0.
   219  2.18  0.  0.
   220  2.19  0.  0.
   221  2.20  0.  0.
   222  2.21  0.  0.
   223  2.22  0.  0.
   224  2.23  0.  0.
   225  2.24  0.  0.
   226  2.25  0.  0.
   227  2.26  0.  0.
   228  2.27  0.  0.
   229  2.28  0.  0.
   230  2.29  0.  0.
   231  2.30  0.  0.
   232  2.31  0.  0.
   233  2.32  0.  0.
   234  2.33  0.  0.
   235  2.34  0.  0.
   236  2.35  0.  0.
   237  2.36  0.  0.
   238  2.37  0.  0.
   239  2.38  0.  0.
   240  2.39  0.  0.
   241  2.40  0.  0.
   242  2.41  0.  0.
   243  2.42  0.  0.
   244  2.43  0.  0.
   245  2.44  0.  0.
   246  2.45  0.  0.
   247  2.46  0.  0.
   248  2.47  0.  0.
   249  2.48  0.  0.
   250  2.49  0.  0.
   251  2.50  0.  0.
   252  2.51  0.  0.
   253  2.52  0.  0.
   254  2.53  0.  0.
   255  2.54  0.  0.
   256  2.55  0.  0.
   257  2.56  0.  0.
   258  2.57  0.  0.
   259  2.58  0.  0.
   260  2.59  0.  0.
   261  2.60  0.  0.
   262  2.61  0.  0.
   263  2.62  0.  0.
   264  2.63  0.  0.
   265  2.64  0.  0.
   266  2.65  0.  0.
   267  2.66  0.  0.
   268  2.67  0.  0.
   269  2.68  0.  0.
   270  2.69  0.  0.
   271  2.70  0.  0.
   272  2.71  0.  0.
   273  2.72  0.  0.
   274  2.73  0.  0.
   275  2.74  0.  0.
   276  2.75  0.  0.
   277  2.76  0.  0.
   278  2.77  0.  0.
   279  2.78  0.  0.
   280  2.79  0.  0.
   281  2.80  0.  0.
   282  2.81  0.  0.
   283  2.82  0.  0.
   284  2.83  0.  0.
   285  2.84  0.  0.
   286  2.85  0.  0.
   287  2.86  0.  0.
   288  2.87  0.  0.
   289  2.88  0.  0.
   290  2.89  0.  0.
   291  2.90  0.  0.
   292  2.91  0.  0.
   293  2.92  0.  0.
   294  2.93  0.  0.
   295  2.94  0.  0.
   296  2.95  0.  0.
   297  2.96  0.  0.
   298  2.97  0.  0.
   299  2.98  0.  0.
   300  2.99  0.  0.
   301  3.00  0.  0.
   302  3.01  0.  0.
   303  3.02  0.  0.
   304  3.03  0.  0.
   305  3.04  0.  0.
   306  3.05  0.  0.
   307  3.06  0.  0.
   308  3.07  0.  0.
   309  3.08  0.  0.
   310  3.09  0.  0.
   311  3.10  0.  0.
   312  3.11  0.  0.
   313  3.12  0.  0.
   314  3.13  0.  0.
   315  3.14  0.  0.
   316  3.15  0.  0.
   317  3.16  0.  0.
   318  3.17  0.  0.
   319  3.18  0.  0.
   320  3.19  0.  0.
   321  3.20  0.  0.
   322  3.21  0.  0.
   323  3.22  0.  0.
   324  3.23  0.  0.
   325  3.24  0.  0.
   326  3.25  0.  0.
   327  3.26  0.  0.
   328  3.27  0.  0.
   329  3.28  0.  0.
   330  3.29  0.  0.
   331  3.30  0.  0.
   332  3.31  0.  0.
   333  3.32  0.  0.
   334  3.33  0.  0.
   335  3.34  0.  0.
   336  3.35  0.  0.
   337  3.36  0.  0.
   338  3.37  0.  0.
   339  3.38  0.  0.
   340  3.39  0.  0.
   341  3.40  0.  0.
   342  3.41  0.  0.
   343  3.42  0.  0.
   344  3.43  0.  0.
   345  3.44  0.  0.
   346  3.45  0.  0.
   347  3.46  0.  0.
   348  3.47  0.  0.
   349  3.48  0.  0.
   350  3.49  0.  0.
   351  3.50  0.  0.
   352  3.51  0.  0.
   353  3.52  0.  0.
   354  3.53  0.  0.
   355  3.54  0.  0.
   356  3.55  0.  0.
   357  3.56  0.  0.
   358  3.57  0.  0.
   359  3.58  0.  0.
   360  3.59  0.  0.
   361  3.60  0.  0.
   362  3.61  0.  0.
   363  3.62  0.  0.
   364  3.63  0.  0.
   365  3.64  0.  0.
   366  3.65  0.  0.
   367  3.66  0.  0.
   368  3.67  0.  0.
   369  3.68  0.  0.
   370  3.69  0.  0.
   371  3.70  0.  0.
   372  3.71  0.  0.
   373  3.72  0.  0.
   374  3.73  0.  0.
   375  3.74  0.  0.
   376  3.75  0.  0.
   377  3.76  0.  0.
   378  3.77  0.  0.
   379  3.78  0.  0.
   380  3.79  0.  0.
   381  3.80  0.  0.
   382  3.81  0.  0.
   383  3.82  0.  0.
   384  3.83  0.  0.
   385  3.84  0.  0.
   386  3.85  0.  0.
   387  3.86  0.  0.
   388  3.87  0.  0.
   389  3.88  0.  0.
   390  3.89  0.  0.
   391  3.90  0.  0.
   392  3.91  0.  0.
   393  3.92  0.  0.
   394  3.93  0.  0.
   395  3.94  0.  0.
   396  3.95  0.  0.
   397  3.96  0.  0.
   398  3.97  0.  0.
   399  3.98  0.  0.
   400  3.99  0.  0.
   401  4.00  0.  0.
   402  4.01  0.  0.
   403  4.02  0.  0.
   404  4.03  0.  0.
   405  4.04  0.  0.
   406  4.05  0.  0.
   407  4.06  0.  0.
   408  4.07  0.  0.
   409  4.08  0.  0.
   410  4.09  0.  0.
   411  4.10  0.  0.
   412  4.11  0.  0.
   413  4.12  0.  0.
   414  4.13  0.  0.
   415  4.14  0.  0.
   416  4.15  0.  0.
   417  4.16  0.  0.
   418  4.17  0.  0.
   419  4.18  0.  0.
   420  4.19  0.  0.
   421  4.20  0.  0.
   422  4.21  0.  0.
   423  4.22  0.  0.
   424  4.23  0.  0.
   425  4.24  0.  0.
   426  4.25  0.  0.
   427  4.26  0.  0.
   428  4.27  0.  0.
   429  4.28  0.  0.
   430  4.29  0.  0.
   431  4.30  0.  0.
   432  4.31  0.  0.
   433  4.32  0.  0.
   434  4.33  0.  0.
   435  4.34  0.  0.
   436  4.35  0.  0.
   437  4.36  0.  0.
   438  4.37  0.  0.
   439  4.38  0.  0.
   440  4.39  0.  0.
   441  4.40  0.  0.
   442  4.41  0.  0.
   443  4.42  0.  0.
   444  4.43  0.  0.
   445  4.44  0.  0.
   446  4.45  0.  0.
   447  4.46  0.  0.
   448  4.47  0.  0.
   449  4.48  0.  0.
   450  4.49  0.  0.
   451  4.50  0.  0.
   452  4.51  0.  0.
   453  4.52  0.  0.
   454  4.53  0.  0.
   455  4.54  0.  0.
   456  4.55  0.  0.
   457  4.56  0.  0.
   458  4.57  0.  0.
   459  4.58  0.  0.
   460  4.59  0.  0.
   461  4.60  0.  0.
   462  4.61  0.  0.
   463  4.62  0.  0.
   464  4.63  0.  0.
   465  4.64  0.  0.
   466  4.65  0.  0.
   467  4.66  0.  0.
   468  4.67  0.  0.
   469  4.68  0.  0.
   470  4.69  0.  0.
   471  4.70  0.  0.
   472  4.71  0.  0.
   473  4.72  0.  0.
   474  4.73  0.  0.
   475  4.74  0.  0.
   476  4.75  0.  0.
   477  4.76  0.  0.
   478  4.77  0.  0.
   479  4.78  0.  0.
   480  4.79  0.  0.
   481  4.80  0.  0.
   482  4.81  0.  0.
   483  4.82  0.  0.
   484  4.83  0.  0.
   485  4.84  0.  0.
   486  4.85  0.  0.
   487  4.86  0.  0.
   488  4.87  0.  0.
   489  4.88  0.  0.
   490  4.89  0.  0.
   491  4.90  0.  0.
   492  4.91  0.  0.
   493  4.92  0.  0.
   494  4.93  0.  0.
   495  4.94  0.  0.
   496  4.95  0.  0.
   497  4.96  0.  0.
   498  4.97  0.  0.
   499  4.98  0.  0.
   500  4.99  0.  0.
   501  5.00  0.  0.
   502  5.01  0.  0.
   503  5.02  0.  0.
   504  5.03  0.  0.
   505  5.04  0.  0.
   506  5.05  0.  0.
   507  5.06  0.  0.
   508  5.07  0.  0.
   509  5.08  0.  0.
   510  5.09  0.  0.
   511  5.10  0.  0.
   512  5.11  0.  0.
   513  5.12  0.  0.
   514  5.13  0.  0.
   515  5.14  0.  0.
   516  5.15  0.  0.
   517  5.16  0.  0.
   518  5.17  0.  0.
   519  5.18  0.  0.
   520  5.19  0.  0.
   521  5.20  0.  0.
   522  5.21  0.  0.
   523  5.22  0.  0.
   524  5.23  0.  0.
   525  5.24  0.  0.
   526  5.25  0.  0.
   527  5.26  0.  0.
   528  5.27  0.  0.
   529  5.28  0.  0.
   530  5.29  0.  0.
   531  5.30  0.  0.
   532  5.31  0.  0.
   533  5.32  0.  0.
   534  5.33  0.  0.
   535  5.34  0.  0.
   536  5.35  0.  0.
   537  5.36  0.  0.
   538  5.37  0.  0.
   539  5.38  0.  0.
   540  5.39  0.  0.
   541  5.40  0.  0.
   542  5.41  0.  0.
   543  5.42  0.  0.
   544  5.43  0.  0.
   545  5.44  0.  0.
   546  5.45  0.  0.
   547  5.46  0.  0.
   548  5.47  0.  0.
   549  5.48  0.  0.
   550  5.49  0.  0.
   551  5.50  0.  0.
   552  5.51  0.  0.
   553  5.52  0.  0.
   554  5.53  0.  0.
   555  5.54  0.  0.
   556  5.55  0.  0.
   557  5.56  0.  0.
   558  5.57  0.  0.
   559  5.58  0.  0.
   560  5.59  0.  0.
   561  5.60  0.  0.
   562  5.61  0.  0.
   563  5.62  0.  0.
   564  5.63  0.  0.
   565  5.64  0.  0.
   566  5.65  0.  0.
   567  5.66  0.  0.
   568  5.67  0.  0.
   569  5.68  0.  0.
   570  5.69  0.  0.
   571  5.70  0.  0.
   572  5.71  0.  0.
   573  5.72  0.  0.
   574  5.73  0.  0.
   575  5.74  0.  0.
   576  5.75  0.  0.
   577  5.76  0.  0.
   578  5.77  0.  0.
   579  5.78  0.  0.
   580  5.79  0.  0.
   581  5.80  0.  0.
   582  5.81  0.  0.
   583  5.82  0.  0.
   584  5.83  0.  0.
   585  5.84  0.  0.
   586  5.85  0.  0.
   587  5.86  0.  0.
   588  5.87  0.  0.
   589  5.88  0.  0.
   590  5.89  0.  0.
   591  5.90  0.  0.
   592  5.91  0.  0.
   593  5.92  0.  0.
   594  5.93  0.  0.
   595  5.94  0.  0.
   596  5.95  0.  0.
   597  5.96  0.  0.
   598  5.97  0.  0.
   599  5.98  0.  0.
   600  5.99  0.  0.
   1                        -3.5060342965606E+00 -7.9484101830349E-01
     1  0.0000000000000E+00 -4.2480816503376E-09  8.0408156521994E-09
     2  1.0000000000000E-02  1.5116205499753E-03 -6.2080763962315E-04
     3  2.0000000000000E-02  6.0434915251320E-03 -2.4827058062780E-03
     4  3.0000000000000E-02  1.3586563573320E-02 -5.5839727250557E-03
     5  4.0000000000000E-02  2.4125499333701E-02 -9.9212521271895E-03
     6  5.0000000000000E-02  3.7638299992147E-02 -1.5488840943457E-02
     7  6.0000000000000E-02  5.4095800647579E-02 -2.2277726902149E-02
     8  7.0000000000000E-02  7.3461052116481E-02 -3.0274409728038E-02
     9  8.0000000000000E-02  9.5688611050872E-02 -3.9459547679591E-02
    10  9.0000000000000E-02  1.2072376392882E-01 -4.9806478069120E-02
    11  1.0000000000000E-01  1.4850171349760E-01 -6.1279665988645E-02
    12  1.1000000000000E-01  1.7894675852657E-01 -7.3833139552539E-02
    13  1.2000000000000E-01  2.1197149919533E-01 -8.7408972443051E-02
    14  1.3000000000000E-01  2.4747610105937E-01 -1.0193587532357E-01
    15  1.4000000000000E-01  2.8534765027455E-01 -1.1732795672422E-01
    16  1.5000000000000E-01  3.2545963162191E-01 -1.3348371131026E-01
    17  1.6000000000000E-01  3.6767155887313E-01 -1.5028528906006E-01
    18  1.7000000000000E-01  4.1182878421427E-01 -1.6759809289840E-01
    19  1.8000000000000E-01  4.5776250986116E-01 -1.8527074488190E-01
    20  1.9000000000000E-01  5.0529002073169E-01 -2.0313545228755E-01
    21  2.0000000000000E-01  5.5421515218528E-01 -2.2100879511580E-01
    22  2.1000000000000E-01  6.0432900150824E-01 -2.3869294582259E-01
    23  2.2000000000000E-01  6.5541088613881E-01 -2.5597732079669E-01
    24  2.3000000000000E-01  7.0722954572134E-01 -2.7264065147998E-01
    25  2.4000000000000E-01  7.5954457909480E-01 -2.8845345137697E-01
    26  2.5000000000000E-01  8.1210810139999E-01 -3.0318084381097E-01
    27  2.6000000000000E-01  8.6466660077709E-01 -3.1658570445244E-01
    28  2.7000000000000E-01  9.1696296875936E-01 -3.2843206265292E-01
    29  2.8000000000000E-01  9.6873867358621E-01 -3.3848869673477E-01
    30  2.9000000000000E-01  1.0197360413817E+00 -3.4653285085974E-01
    31  3.0000000000000E-01  1.0697006065864E+00 -3.5235399514357E-01
    32  3.1000000000000E-01  1.1183834902874E+00 -3.5575754648508E-01
    33  3.2000000000000E-01  1.1655437632406E+00 -3.5656846527905E-01
    34  3.3000000000000E-01  1.2109507494834E+00 -3.5463464288480E-01
    35  3.4000000000000E-01  1.2543862265293E+00 -3.4982999648152E-01
    36  3.5000000000000E-01  1.2956464792330E+00 -3.4205719176485E-01
    37  3.6000000000000E-01  1.3345441665158E+00 -3.3124991978372E-01
    38  3.7000000000000E-01  1.3709099632011E+00 -3.1737466199376E-01
    39  3.8000000000000E-01  1.4045939431915E+00 -3.0043188717273E-01
    40  3.9000000000000E-01  1.4354666750337E+00 -2.8045663502418E-01
    41  4.0000000000000E-01  1.4634200064758E+00 -2.5751845386103E-01
    42  4.1000000000000E-01  1.4883675208141E+00 -2.3172067345161E-01
    43  4.2000000000000E-01  1.5102446545072E+00 -2.0319900863156E-01
    44  4.3000000000000E-01  1.5290084725839E+00 -1.7211950432007E-01
    45  4.4000000000000E-01  1.5446371056129E+00 -1.3867584778961E-01
    46  4.5000000000000E-01  1.5571288592902E+00 -1.0308608907668E-01
    47  4.6000000000000E-01  1.5665010148654E+00 -6.5588824938440E-02
    48  4.7000000000000E-01  1.5727883455067E+00 -2.6438915406595E-02
    49  4.8000000000000E-01  1.5760413801410E+00  1.4097185565402E-02
    50  4.9000000000000E-01  1.5763244521433E+00  5.5746392937058E-02
    51  5.0000000000000E-01  1.5737135753484E+00  9.8234145346130E-02
    52  5.1000000000000E-01  1.5682941941001E+00  1.4128964317778E-01
    53  5.2000000000000E-01  1.5601588573098E+00  1.8465105649704E-01
    54  5.3000000000000E-01  1.5494048687063E+00  2.2807058701452E-01
    55  5.4000000000000E-01  1.5361319665245E+00  2.7131926840116E-01
    56  5.5000000000000E-01  1.5204400857871E+00  3.1419139200706E-01
    57  5.6000000000000E-01  1.5024272550433E+00  3.5650845037203E-01
    58  5.7000000000000E-01  1.4821876769635E+00  3.9812249878469E-01
    59  5.8000000000000E-01  1.4598100385718E+00  4.3891884543690E-01
    60  5.9000000000000E-01  1.4353760922077E+00  4.7881799326136E-01
    61  6.0000000000000E-01  1.4089595426056E+00  5.1777677110661E-01
    62  6.1000000000000E-01  1.3806252689011E+00  5.5578860822327E-01
    63  6.2000000000000E-01  1.3504289030258E+00  5.9288292378832E-01
    64  6.3000000000000E-01  1.3184167779982E+00  6.2912362202691E-01
    65  6.4000000000000E-01  1.2846262512185E+00  6.6460670301392E-01
    66  6.5000000000000E-01  1.2490863992070E+00  6.9945701904282E-01
    67  6.6000000000000E-01  1.2118190714752E+00  7.3382422610995E-01
    68  6.7000000000000E-01  1.1728402825747E+00  7.6787799915020E-01
    69  6.8000000000000E-01  1.1321619130296E+00  8.0180259774687E-01
    70  6.9000000000000E-01  1.0897936819977E+00  8.3579088571035E-01
    71  7.0000000000000E-01  1.0457453473230E+00  8.7003792278723E-01
    72  7.1000000000000E-01  1.0000290822858E+00  9.0473425945949E-01
    73  7.2000000000000E-01  9.5266197299938E-01  9.4005907600407E-01
    74  7.3000000000000E-01  9.0366857616102E-01  9.7617331442872E-01
    75  7.4000000000000E-01  8.5308347386879E-01  1.0132129563614E+00
    76  7.5000000000000E-01  8.0095376053652E-01  1.0512826012832E+00
    77  7.6000000000000E-01  7.4734139665156E-01  1.0904494975622E+00
    78  7.7000000000000E-01  6.9232536524605E-01  1.1307381735356E+00
    79  7.8000000000000E-01  6.3600356950047E-01  1.1721258074337E+00
    80  7.9000000000000E-01  5.7849441383690E-01  1.2145384633572E+00
    81  8.0000000000000E-01  5.1993801613363E-01  1.2578483059676E+00
    82  8.1000000000000E-01  4.6049700521196E-01  1.3018718892878E+00
    83  8.2000000000000E-01  4.0035686539915E-01  1.3463695953199E+00
    84  8.3000000000000E-01  3.3972579861437E-01  1.3910462764416E+00
    85  8.4000000000000E-01  2.7883408389459E-01  1.4355531321377E+00
    86  8.5000000000000E-01  2.1793292439174E-01  1.4794908260190E+00
    87  8.6000000000000E-01  1.5729278242864E-01  1.5224138237508E+00
    88  8.7000000000000E-01  9.7201213988007E-02  1.5638359069705E+00
    89  8.8000000000000E-01  3.7960224805289E-02  1.6032367930375E+00
    90  8.9000000000000E-01 -2.0116819183756E-02  1.6400697660500E+00
    91  9.0000000000000E-01 -7.6708684147185E-02  1.6737702015024E+00
    92  9.1000000000000E-01 -1.3149011103399E-01  1.7037648457357E+00
    93  9.2000000000000E-01 -1.8413594762397E-01  1.7294816924313E+00
    94  9.3000000000000E-01 -2.3432550138535E-01  1.7503602822255E+00
    95  9.4000000000000E-01 -2.8174703824026E-01  1.7658622384845E+00
    96  9.5000000000000E-01 -3.2610234738567E-01  1.7754818426760E+00
    97  9.6000000000000E-01 -3.6711128886983E-01  1.7787564468834E+00
    98  9.7000000000000E-01 -4.0451623877906E-01  1.7752765190062E+00
    99  9.8000000000000E-01 -4.3808634670941E-01  1.7646951181957E+00
   100  9.9000000000000E-01 -4.6762152171448E-01  1.7467366041180E+00
   101  1.0000000000000E+00 -4.9295606613148E-01  1.7212043936743E+00
   102  1.0100000000000E+00 -5.1396188155256E-01  1.6879875927056E+00
   103  1.0200000000000E+00 -5.3055117765628E-01  1.6470663477575E+00
   104  1.0300000000000E+00 -5.4267862254564E-01  1.5985157839145E+00
   105  1.0400000000000E+00 -5.5034288250498E-01  1.5425084186392E+00
   106  1.0500000000000E+00 -5.5358750953385E-01  1.4793149680780E+00
   107  1.0600000000000E+00 -5.5250114645697E-01  1.4093034909542E+00
   108  1.0700000000000E+00 -5.4721703159877E-01  1.3329368453576E+00
   109  1.0800000000000E+00 -5.3791179777252E-01  1.2507684650102E+00
   110  1.0900000000000E+00 -5.2480357336689E-01  1.1634364932277E+00
   111  1.1000000000000E+00 -5.0814940639278E-01  1.0716563442510E+00
   112  1.1100000000000E+00 -4.8824204523823E-01  9.7621179231464E-01
   113  1.1200000000000E+00 -4.6540612224772E-01  8.7794471799374E-01
   114  1.1300000000000E+00 -4.3999379795394E-01  7.7774366868534E-01
   115  1.1400000000000E+00 -4.1237993446695E-01  6.7653141465729E-01
   116  1.1500000000000E+00 -3.8295687610360E-01  5.7525170378635E-01
   117  1.1600000000000E+00 -3.5212892346152E-01  4.7485543608745E-01
   118  1.1700000000000E+00 -3.2030659377695E-01  3.7628649333788E-01
   119  1.1800000000000E+00 -2.8790076529068E-01  2.8046746894311E-01
   120  1.1900000000000E+00 -2.5531680645414E-01  1.8828554861152E-01
   121  1.2000000000000E+00 -2.2294879200819E-01  1.0057879314132E-01
   122  1.2100000000000E+00 -1.9117390724979E-01  1.8123070669885E-02
   123  1.2200000000000E+00 -1.6034713913162E-01 -5.8380122967539E-02
   124  1.2300000000000E+00 -1.3079634831389E-01 -1.2831473028481E-01
   125  1.2400000000000E+00 -1.0281780987415E-01 -1.9115987682456E-01
   126  1.2500000000000E+00 -7.6672302311089E-02 -2.4649810832751E-01
   127  1.2600000000000E+00 -5.2581814818418E-02 -2.9402195964303E-01
   128  1.2700000000000E+00 -3.0726931711494E-02 -3.3353872338285E-01
   129  1.2800000000000E+00 -1.1244940679311E-02 -3.6497331762496E-01
   130  1.2900000000000E+00  5.7713016895344E-03 -3.8836918558945E-01
   131  1.3000000000000E+00  2.0273727598840E-02 -4.0388719538625E-01
   132  1.3100000000000E+00  3.2258633784923E-02 -4.1180254389077E-01
   133  1.3200000000000E+00  4.1765484662156E-02 -4.1249970503109E-01
   134  1.3300000000000E+00  4.8874966689013E-02 -4.0646549863534E-01