He    ONCVPSP-4.0.1  r_core=   1.25127   1.13028
      2.0000      2.0000      190915    zatom,zion,pspd
     8       2   1     4   600     0    pspcod,pspxc,lmax,lloc,mmax,r2well
  5.99000000  0.00000000  0.00000000    rchrg fchrg qchrg
     2     1     0     0     0    nproj
     1     1           extension_switch
   0                        -3.3612121103996E+00 -7.5842552224084E-01
     1  0.0000000000000E+00  5.7950443332899E-09 -1.5526706309554E-08
     2  1.0000000000000E-02  1.0104591957429E-01 -3.7347218040859E-02
     3  2.0000000000000E-02  2.0178779813464E-01 -7.4448944152482E-02
     4  3.0000000000000E-02  3.0192153705448E-01 -1.1105801116478E-01
     5  4.0000000000000E-02  4.0114296679190E-01 -1.4692402104541E-01
     6  5.0000000000000E-02  4.9914792064205E-01 -1.8179202431711E-01
     7  6.0000000000000E-02  5.9563243520711E-01 -2.1540154166202E-01
     8  7.0000000000000E-02  6.9029311273953E-01 -2.4748602277579E-01
     9  8.0000000000000E-02  7.8282767471891E-01 -2.7777282200714E-01
    10  9.0000000000000E-02  8.7293572911578E-01 -3.0598375183270E-01
    11  1.0000000000000E-01  9.6031976598563E-01 -3.3183625434632E-01
    12  1.1000000000000E-01  1.0446863875622E+00 -3.5504520833764E-01
    13  1.2000000000000E-01  1.1257477701407E+00 -3.7532536590732E-01
    14  1.3000000000000E-01  1.2032233460305E+00 -3.9239438865770E-01
    15  1.4000000000000E-01  1.2768416849952E+00 -4.0597643007112E-01
    16  1.5000000000000E-01  1.3463425461581E+00 -4.1580618849186E-01
    17  1.6000000000000E-01  1.4114790636061E+00 -4.2163333488437E-01
    18  1.7000000000000E-01  1.4720200221157E+00 -4.2322720191796E-01
    19  1.8000000000000E-01  1.5277521737824E+00 -4.2038160652268E-01
    20  1.9000000000000E-01  1.5784825420389E+00 -4.1291966737654E-01
    21  2.0000000000000E-01  1.6240406567677E+00 -4.0069847222237E-01
    22  2.1000000000000E-01  1.6642806630376E+00 -3.8361344774772E-01
    23  2.2000000000000E-01  1.6990832465105E+00 -3.6160228714897E-01
    24  2.3000000000000E-01  1.7283573207642E+00 -3.3464829745235E-01
    25  2.4000000000000E-01  1.7520414256503E+00 -3.0278304006331E-01
    26  2.5000000000000E-01  1.7701047912468E+00 -2.6608815360241E-01
    27  2.6000000000000E-01  1.7825480288642E+00 -2.2469626748129E-01
    28  2.7000000000000E-01  1.7894034187317E+00 -1.7879093736944E-01
    29  2.8000000000000E-01  1.7907347732255E+00 -1.2860555909620E-01
    30  2.9000000000000E-01  1.7866368645525E+00 -7.4421244924476E-02
    31  3.0000000000000E-01  1.7772344163968E+00 -1.6563674752165E-02
    32  3.1000000000000E-01  1.7626806698890E+00  4.4601036166347E-02
    33  3.2000000000000E-01  1.7431555450502E+00  1.0867138278422E-01
    34  3.3000000000000E-01  1.7188634293102E+00  1.7521633158579E-01
    35  3.4000000000000E-01  1.6900306344772E+00  2.4378187491359E-01
    36  3.5000000000000E-01  1.6569025723837E+00  3.1389813318248E-01
    37  3.6000000000000E-01  1.6197407070648E+00  3.8508684108910E-01
    38  3.7000000000000E-01  1.5788193475244E+00  4.5686903934392E-01
    39  3.8000000000000E-01  1.5344223497104E+00  5.2877278358094E-01
    40  3.9000000000000E-01  1.4868397990940E+00  6.0034067731228E-01
    41  4.0000000000000E-01  1.4363647461412E+00  6.7113703634038E-01
    42  4.1000000000000E-01  1.3832900659064E+00  7.4075449801246E-01
    43  4.2000000000000E-01  1.3279055099835E+00  8.0881990004527E-01
    44  4.3000000000000E-01  1.2704950141680E+00  8.7499927015450E-01
    45  4.4000000000000E-01  1.2113343185223E+00  9.3900178903179E-01
    46  4.5000000000000E-01  1.1506889482601E+00  1.0005826148235E+00
    47  4.6000000000000E-01  1.0888125941762E+00  1.0595444865473E+00
    48  4.7000000000000E-01  1.0259459204985E+00  1.1157380560891E+00
    49  4.8000000000000E-01  9.6231581631306E-01  1.1690609327096E+00
    50  4.9000000000000E-01  8.9813509442054E-01  1.2194554594483E+00
    51  5.0000000000000E-01  8.3360262896554E-01  1.2669052764645E+00
    52  5.1000000000000E-01  7.6890391077200E-01  1.3114307612241E+00
    53  5.2000000000000E-01  7.0421198737336E-01  1.3530834685355E+00
    54  5.3000000000000E-01  6.3968874357932E-01  1.3919397237966E+00
    55  5.4000000000000E-01  5.7548646839381E-01  1.4280935495560E+00
    56  5.5000000000000E-01  5.1174964548632E-01  1.4616491277823E+00
    57  5.6000000000000E-01  4.4861689748070E-01  1.4927130173806E+00
    58  5.7000000000000E-01  3.8622300928005E-01  1.5213863579144E+00
    59  5.8000000000000E-01  3.2470095266136E-01  1.5477572957432E+00
    60  5.9000000000000E-01  2.6418383356524E-01  1.5718938676112E+00
    61  6.0000000000000E-01  2.0480668492929E-01  1.5938375690067E+00
    62  6.1000000000000E-01  1.4670803156628E-01  1.6135978204409E+00
    63  6.2000000000000E-01  9.0031159403814E-02  1.6311475244095E+00
    64  6.3000000000000E-01  3.4925029257109E-02  1.6464198796407E+00
    65  6.4000000000000E-01 -1.8455214983820E-02  1.6593065878703E+00
    66  6.5000000000000E-01 -6.9948182541133E-02  1.6696575525817E+00
    67  6.6000000000000E-01 -1.1938664243442E-01  1.6772821297628E+00
    68  6.7000000000000E-01 -1.6659841311333E-01  1.6819519487682E+00
    69  6.8000000000000E-01 -2.1140773315899E-01  1.6834052778956E+00
    70  6.9000000000000E-01 -2.5363709657762E-01  1.6813528654460E+00
    71  7.0000000000000E-01 -2.9310952173397E-01  1.6754851439860E+00
    72  7.1000000000000E-01 -3.2965120901923E-01  1.6654806444634E+00
    73  7.2000000000000E-01 -3.6309452930545E-01  1.6510154288539E+00
    74  7.3000000000000E-01 -3.9328127348156E-01  1.6317733162478E+00
    75  7.4000000000000E-01 -4.2006608323575E-01  1.6074566486804E+00
    76  7.5000000000000E-01 -4.4331997505416E-01  1.5777973204551E+00
    77  7.6000000000000E-01 -4.6293386340449E-01  1.5425677789242E+00
    78  7.7000000000000E-01 -4.7882198547130E-01  1.5015916962387E+00
    79  7.8000000000000E-01 -4.9092512875283E-01  1.4547540108354E+00
    80  7.9000000000000E-01 -4.9921356439705E-01  1.4020100445810E+00
    81  8.0000000000000E-01 -5.0368959335922E-01  1.3433934165183E+00
    82  8.1000000000000E-01 -5.0438961924798E-01  1.2790224968384E+00
    83  8.2000000000000E-01 -5.0138567096502E-01  1.2091051745992E+00
    84  8.3000000000000E-01 -4.9478630974309E-01  1.1339417492124E+00
    85  8.4000000000000E-01 -4.8473686869346E-01  1.0539257980204E+00
    86  8.5000000000000E-01 -4.7141898817537E-01  9.6954291940858E-01
    87  8.6000000000000E-01 -4.5504942683783E-01  8.8136730175466E-01
    88  8.7000000000000E-01 -4.3587814565592E-01  7.9005612186479E-01
    89  8.8000000000000E-01 -4.1418568026039E-01  6.9634183109809E-01
    90  8.9000000000000E-01 -3.9027983488933E-01  6.0102244176680E-01
    91  9.0000000000000E-01 -3.6449174891549E-01  5.0494997924932E-01
    92  9.1000000000000E-01 -3.3717140366815E-01  4.0901731521094E-01
    93  9.2000000000000E-01 -3.0868265273268E-01  3.1414364308163E-01
    94  9.3000000000000E-01 -2.7939787266398E-01  2.2125889728026E-01
    95  9.4000000000000E-01 -2.4969234271417E-01  1.3128745149352E-01
    96  9.5000000000000E-01 -2.1993847142476E-01  4.5131457666180E-02
    97  9.6000000000000E-01 -1.9049999449810E-01 -3.6345794541451E-02
    98  9.7000000000000E-01 -1.6172627203537E-01 -1.1233610880834E-01
    99  9.8000000000000E-01 -1.3394681387584E-01 -1.8210181463092E-01
   100  9.9000000000000E-01 -1.0746615934638E-01 -2.4499002134964E-01
   101  1.0000000000000E+00 -8.2559231199936E-02 -3.0044533674456E-01
   102  1.0100000000000E+00 -5.9467254332854E-02 -3.4802080917222E-01
   103  1.0200000000000E+00 -3.8393567966806E-02 -3.8739005374726E-01
   104  1.0300000000000E+00 -1.9499376938837E-02 -4.1836023559187E-01
   105  1.0400000000000E+00 -2.9013422577745E-03 -4.4087791670039E-01
   106  1.0500000000000E+00  1.1329668949933E-02 -4.5503097495270E-01
   107  1.0600000000000E+00  2.3168910500155E-02 -4.6104768785202E-01
   108  1.0700000000000E+00  3.2637148564833E-02 -4.5929295651311E-01
   109  1.0800000000000E+00  3.9799125534945E-02 -4.5026170831202E-01
   110  1.0900000000000E+00  4.4761125457144E-02 -4.3456958066210E-01
   111  1.1000000000000E+00  4.7667690761992E-02 -4.1294105094477E-01
   112  1.1100000000000E+00  4.8697559638746E-02 -3.8619523708615E-01
   113  1.1200000000000E+00  4.8058911540309E-02 -3.5522964799425E-01
   114  1.1300000000000E+00  4.5984024624570E-02 -3.2100221216336E-01
   115  1.1400000000000E+00  4.2723462865385E-02 -2.8451195444836E-01
   116  1.1500000000000E+00  3.8539921944522E-02 -2.4677872485360E-01
   117  1.1600000000000E+00  3.3701871394922E-02 -2.0882240777422E-01
   118  1.1700000000000E+00  2.8477135127946E-02 -1.7164205420671E-01
   119  1.1800000000000E+00  2.3126560956174E-02 -1.3619539659133E-01
   120  1.1900000000000E+00  1.7897975530531E-02 -1.0337926995369E-01
   121  1.2000000000000E+00  1.3022613227836E-02 -7.4015108366901E-02
   122  1.2100000000000E+00  8.7056493412460E-03 -4.8825009928928E-02
   123  1.2200000000000E+00  5.1216181191999E-03 -2.8416461117090E-02
   124  1.2300000000000E+00  2.4128844832035E-03 -1.3274818347730E-02
   125  1.2400000000000E+00  6.8119020278942E-04 -3.7242931778898E-03
   126  1.2500000000000E+00  1.9432454386245E-05 -1.0573262919484E-04
   127  1.2600000000000E+00  2.6511451228353E-06 -1.4429806449209E-05
   128  1.2700000000000E+00 -7.9397784302166E-07  4.3324524616563E-06
   129  1.28  0. -0.
   130  1.29  0.  0.
   131  1.30  0.  0.
   132  1.31  0.  0.
   133  1.32  0.  0.
   134  1.33  0.  0.
   135  1.34  0.  0.
   136  1.35  0.  0.
   137  1.36  0.  0.
   138  1.37  0.  0.
   139  1.38  0.  0.
   140  1.39  0.  0.
   141  1.40  0.  0.
   142  1.41  0.  0.
   143  1.42  0.  0.
   144  1.43  0.  0.
   145  1.44  0.  0.
   146  1.45  0.  0.
   147  1.46  0.  0.
   148  1.47  0.  0.
   149  1.48  0.  0.
   150  1.49  0.  0.
   151  1.50  0.  0.
   152  1.51  0.  0.
   153  1.52  0.  0.
   154  1.53  0.  0.
   155  1.54  0.  0.
   156  1.55  0.  0.
   157  1.56  0.  0.
   158  1.57  0.  0.
   159  1.58  0.  0.
   160  1.59  0.  0.
   161  1.60  0.  0.
   162  1.61  0.  0.
   163  1.62  0.  0.
   164  1.63  0.  0.
   165  1.64  0.  0.
   166  1.65  0.  0.
   167  1.66  0.  0.
   168  1.67  0.  0.
   169  1.68  0.  0.
   170  1.69  0.  0.
   171  1.70  0.  0.
   172  1.71  0.  0.
   173  1.72  0.  0.
   174  1.73  0.  0.
   175  1.74  0.  0.
   176  1.75  0.  0.
   177  1.76  0.  0.
   178  1.77  0.  0.
   179  1.78  0.  0.
   180  1.79  0.  0.
   181  1.80  0.  0.
   182  1.81  0.  0.
   183  1.82  0.  0.
   184  1.83  0.  0.
   185  1.84  0.  0.
   186  1.85  0.  0.
   187  1.86  0.  0.
   188  1.87  0.  0.
   189  1.88  0.  0.
   190  1.89  0.  0.
   191  1.90  0.  0.
   192  1.91  0.  0.
   193  1.92  0.  0.
   194  1.93  0.  0.
   195  1.94  0.  0.
   196  1.95  0.  0.
   197  1.96  0.  0.
   198  1.97  0.  0.
   199  1.98  0.  0.
   200  1.99  0.  0.
   201  2.00  0.  0.
   202  2.01  0.  0.
   203  2.02  0.  0.
   204  2.03  0.  0.
   205  2.04  0.  0.
   206  2.05  0.  0.
   207  2.06  0.  0.
   208  2.07  0.  0.
   209  2.08  0.  0.
   210  2.09  0.  0.
   211  2.10  0.  0.
   212  2.11  0.  0.
   213  2.12  0.  0.
   214  2.13  0.  0.
   215  2.14  0.  0.
   216  2.15  0.  0.
   217  2.16  0.  0.
   218  2.17  0.  0.
   219  2.18  0.  0.
   220  2.19  0.  0.
   221  2.20  0.  0.
   222  2.21  0.  0.
   223  2.22  0.  0.
   224  2.23  0.  0.
   225  2.24  0.  0.
   226  2.25  0.  0.
   227  2.26  0.  0.
   228  2.27  0.  0.
   229  2.28  0.  0.
   230  2.29  0.  0.
   231  2.30  0.  0.
   232  2.31  0.  0.
   233  2.32  0.  0.
   234  2.33  0.  0.
   235  2.34  0.  0.
   236  2.35  0.  0.
   237  2.36  0.  0.
   238  2.37  0.  0.
   239  2.38  0.  0.
   240  2.39  0.  0.
   241  2.40  0.  0.
   242  2.41  0.  0.
   243  2.42  0.  0.
   244  2.43  0.  0.
   245  2.44  0.  0.
   246  2.45  0.  0.
   247  2.46  0.  0.
   248  2.47  0.  0.
   249  2.48  0.  0.
   250  2.49  0.  0.
   251  2.50  0.  0.
   252  2.51  0.  0.
   253  2.52  0.  0.
   254  2.53  0.  0.
   255  2.54  0.  0.
   256  2.55  0.  0.
   257  2.56  0.  0.
   258  2.57  0.  0.
   259  2.58  0.  0.
   260  2.59  0.  0.
   261  2.60  0.  0.
   262  2.61  0.  0.
   263  2.62  0.  0.
   264  2.63  0.  0.
   265  2.64  0.  0.
   266  2.65  0.  0.
   267  2.66  0.  0.
   268  2.67  0.  0.
   269  2.68  0.  0.
   270  2.69  0.  0.
   271  2.70  0.  0.
   272  2.71  0.  0.
   273  2.72  0.  0.
   274  2.73  0.  0.
   275  2.74  0.  0.
   276  2.75  0.  0.
   277  2.76  0.  0.
   278  2.77  0.  0.
   279  2.78  0.  0.
   280  2.79  0.  0.
   281  2.80  0.  0.
   282  2.81  0.  0.
   283  2.82  0.  0.
   284  2.83  0.  0.
   285  2.84  0.  0.
   286  2.85  0.  0.
   287  2.86  0.  0.
   288  2.87  0.  0.
   289  2.88  0.  0.
   290  2.89  0.  0.
   291  2.90  0.  0.
   292  2.91  0.  0.
   293  2.92  0.  0.
   294  2.93  0.  0.
   295  2.94  0.  0.
   296  2.95  0.  0.
   297  2.96  0.  0.
   298  2.97  0.  0.
   299  2.98  0.  0.
   300  2.99  0.  0.
   301  3.00  0.  0.
   302  3.01  0.  0.
   303  3.02  0.  0.
   304  3.03  0.  0.
   305  3.04  0.  0.
   306  3.05  0.  0.
   307  3.06  0.  0.
   308  3.07  0.  0.
   309  3.08  0.  0.
   310  3.09  0.  0.
   311  3.10  0.  0.
   312  3.11  0.  0.
   313  3.12  0.  0.
   314  3.13  0.  0.
   315  3.14  0.  0.
   316  3.15  0.  0.
   317  3.16  0.  0.
   318  3.17  0.  0.
   319  3.18  0.  0.
   320  3.19  0.  0.
   321  3.20  0.  0.
   322  3.21  0.  0.
   323  3.22  0.  0.
   324  3.23  0.  0.
   325  3.24  0.  0.
   326  3.25  0.  0.
   327  3.26  0.  0.
   328  3.27  0.  0.
   329  3.28  0.  0.
   330  3.29  0.  0.
   331  3.30  0.  0.
   332  3.31  0.  0.
   333  3.32  0.  0.
   334  3.33  0.  0.
   335  3.34  0.  0.
   336  3.35  0.  0.
   337  3.36  0.  0.
   338  3.37  0.  0.
   339  3.38  0.  0.
   340  3.39  0.  0.
   341  3.40  0.  0.
   342  3.41  0.  0.
   343  3.42  0.  0.
   344  3.43  0.  0.
   345  3.44  0.  0.
   346  3.45  0.  0.
   347  3.46  0.  0.
   348  3.47  0.  0.
   349  3.48  0.  0.
   350  3.49  0.  0.
   351  3.50  0.  0.
   352  3.51  0.  0.
   353  3.52  0.  0.
   354  3.53  0.  0.
   355  3.54  0.  0.
   356  3.55  0.  0.
   357  3.56  0.  0.
   358  3.57  0.  0.
   359  3.58  0.  0.
   360  3.59  0.  0.
   361  3.60  0.  0.
   362  3.61  0.  0.
   363  3.62  0.  0.
   364  3.63  0.  0.
   365  3.64  0.  0.
   366  3.65  0.  0.
   367  3.66  0.  0.
   368  3.67  0.  0.
   369  3.68  0.  0.
   370  3.69  0.  0.
   371  3.70  0.  0.
   372  3.71  0.  0.
   373  3.72  0.  0.
   374  3.73  0.  0.
   375  3.74  0.  0.
   376  3.75  0.  0.
   377  3.76  0.  0.
   378  3.77  0.  0.
   379  3.78  0.  0.
   380  3.79  0.  0.
   381  3.80  0.  0.
   382  3.81  0.  0.
   383  3.82  0.  0.
   384  3.83  0.  0.
   385  3.84  0.  0.
   386  3.85  0.  0.
   387  3.86  0.  0.
   388  3.87  0.  0.
   389  3.88  0.  0.
   390  3.89  0.  0.
   391  3.90  0.  0.
   392  3.91  0.  0.
   393  3.92  0.  0.
   394  3.93  0.  0.
   395  3.94  0.  0.
   396  3.95  0.  0.
   397  3.96  0.  0.
   398  3.97  0.  0.
   399  3.98  0.  0.
   400  3.99  0.  0.
   401  4.00  0.  0.
   402  4.01  0.  0.
   403  4.02  0.  0.
   404  4.03  0.  0.
   405  4.04  0.  0.
   406  4.05  0.  0.
   407  4.06  0.  0.
   408  4.07  0.  0.
   409  4.08  0.  0.
   410  4.09  0.  0.
   411  4.10  0.  0.
   412  4.11  0.  0.
   413  4.12  0.  0.
   414  4.13  0.  0.
   415  4.14  0.  0.
   416  4.15  0.  0.
   417  4.16  0.  0.
   418  4.17  0.  0.
   419  4.18  0.  0.
   420  4.19  0.  0.
   421  4.20  0.  0.
   422  4.21  0.  0.
   423  4.22  0.  0.
   424  4.23  0.  0.
   425  4.24  0.  0.
   426  4.25  0.  0.
   427  4.26  0.  0.
   428  4.27  0.  0.
   429  4.28  0.  0.
   430  4.29  0.  0.
   431  4.30  0.  0.
   432  4.31  0.  0.
   433  4.32  0.  0.
   434  4.33  0.  0.
   435  4.34  0.  0.
   436  4.35  0.  0.
   437  4.36  0.  0.
   438  4.37  0.  0.
   439  4.38  0.  0.
   440  4.39  0.  0.
   441  4.40  0.  0.
   442  4.41  0.  0.
   443  4.42  0.  0.
   444  4.43  0.  0.
   445  4.44  0.  0.
   446  4.45  0.  0.
   447  4.46  0.  0.
   448  4.47  0.  0.
   449  4.48  0.  0.
   450  4.49  0.  0.
   451  4.50  0.  0.
   452  4.51  0.  0.
   453  4.52  0.  0.
   454  4.53  0.  0.
   455  4.54  0.  0.
   456  4.55  0.  0.
   457  4.56  0.  0.
   458  4.57  0.  0.
   459  4.58  0.  0.
   460  4.59  0.  0.
   461  4.60  0.  0.
   462  4.61  0.  0.
   463  4.62  0.  0.
   464  4.63  0.  0.
   465  4.64  0.  0.
   466  4.65  0.  0.
   467  4.66  0.  0.
   468  4.67  0.  0.
   469  4.68  0.  0.
   470  4.69  0.  0.
   471  4.70  0.  0.
   472  4.71  0.  0.
   473  4.72  0.  0.
   474  4.73  0.  0.
   475  4.74  0.  0.
   476  4.75  0.  0.
   477  4.76  0.  0.
   478  4.77  0.  0.
   479  4.78  0.  0.
   480  4.79  0.  0.
   481  4.80  0.  0.
   482  4.81  0.  0.
   483  4.82  0.  0.
   484  4.83  0.  0.
   485  4.84  0.  0.
   486  4.85  0.  0.
   487  4.86  0.  0.
   488  4.87  0.  0.
   489  4.88  0.  0.
   490  4.89  0.  0.
   491  4.90  0.  0.
   492  4.91  0.  0.
   493  4.92  0.  0.
   494  4.93  0.  0.
   495  4.94  0.  0.
   496  4.95  0.  0.
   497  4.96  0.  0.
   498  4.97  0.  0.
   499  4.98  0.  0.
   500  4.99  0.  0.
   501  5.00  0.  0.
   502  5.01  0.  0.
   503  5.02  0.  0.
   504  5.03  0.  0.
   505  5.04  0.  0.
   506  5.05  0.  0.
   507  5.06  0.  0.
   508  5.07  0.  0.
   509  5.08  0.  0.
   510  5.09  0.  0.
   511  5.10  0.  0.
   512  5.11  0.  0.
   513  5.12  0.  0.
   514  5.13  0.  0.
   515  5.14  0.  0.
   516  5.15  0.  0.
   517  5.16  0.  0.
   518  5.17  0.  0.
   519  5.18  0.  0.
   520  5.19  0.  0.
   521  5.20  0.  0.
   522  5.21  0.  0.
   523  5.22  0.  0.
   524  5.23  0.  0.
   525  5.24  0.  0.
   526  5.25  0.  0.
   527  5.26  0.  0.
   528  5.27  0.  0.
   529  5.28  0.  0.
   530  5.29  0.  0.
   531  5.30  0.  0.
   532  5.31  0.  0.
   533  5.32  0.  0.
   534  5.33  0.  0.
   535  5.34  0.  0.
   536  5.35  0.  0.
   537  5.36  0.  0.
   538  5.37  0.  0.
   539  5.38  0.  0.
   540  5.39  0.  0.
   541  5.40  0.  0.
   542  5.41  0.  0.
   543  5.42  0.  0.
   544  5.43  0.  0.
   545  5.44  0.  0.
   546  5.45  0.  0.
   547  5.46  0.  0.
   548  5.47  0.  0.
   549  5.48  0.  0.
   550  5.49  0.  0.
   551  5.50  0.  0.
   552  5.51  0.  0.
   553  5.52  0.  0.
   554  5.53  0.  0.
   555  5.54  0.  0.
   556  5.55  0.  0.
   557  5.56  0.  0.
   558  5.57  0.  0.
   559  5.58  0.  0.
   560  5.59  0.  0.
   561  5.60  0.  0.
   562  5.61  0.  0.
   563  5.62  0.  0.
   564  5.63  0.  0.
   565  5.64  0.  0.
   566  5.65  0.  0.
   567  5.66  0.  0.
   568  5.67  0.  0.
   569  5.68  0.  0.
   570  5.69  0.  0.
   571  5.70  0.  0.
   572  5.71  0.  0.
   573  5.72  0.  0.
   574  5.73  0.  0.
   575  5.74  0.  0.
   576  5.75  0.  0.
   577  5.76  0.  0.
   578  5.77  0.  0.
   579  5.78  0.  0.
   580  5.79  0.  0.
   581  5.80  0.  0.
   582  5.81  0.  0.
   583  5.82  0.  0.
   584  5.83  0.  0.
   585  5.84  0.  0.
   586  5.85  0.  0.
   587  5.86  0.  0.
   588  5.87  0.  0.
   589  5.88  0.  0.
   590  5.89  0.  0.
   591  5.90  0.  0.
   592  5.91  0.  0.
   593  5.92  0.  0.
   594  5.93  0.  0.
   595  5.94  0.  0.
   596  5.95  0.  0.
   597  5.96  0.  0.
   598  5.97  0.  0.
   599  5.98  0.  0.
   600  5.99  0.  0.
   1                        -6.9660276762577E-01
     1  0.0000000000000E+00 -5.4086956580157E-09
     2  1.0000000000000E-02 -2.4438403017314E-03
     3  2.0000000000000E-02 -9.7577987281387E-03
     4  3.0000000000000E-02 -2.1889384496252E-02
     5  4.0000000000000E-02 -3.8751765315402E-02
     6  5.0000000000000E-02 -6.0224734894628E-02
     7  6.0000000000000E-02 -8.6156045635643E-02
     8  7.0000000000000E-02 -1.1636308518190E-01
     9  8.0000000000000E-02 -1.5063487008563E-01
    10  9.0000000000000E-02 -1.8873432494362E-01
    11  1.0000000000000E-01 -2.3040081102712E-01
    12  1.1000000000000E-01 -2.7535286477294E-01
    13  1.2000000000000E-01 -3.2329110357624E-01
    14  1.3000000000000E-01 -3.7390125418458E-01
    15  1.4000000000000E-01 -4.2685725767350E-01
    16  1.5000000000000E-01 -4.8182440450848E-01
    17  1.6000000000000E-01 -5.3846245357143E-01
    18  1.7000000000000E-01 -5.9642869024100E-01
    19  1.8000000000000E-01 -6.5538088063726E-01
    20  1.9000000000000E-01 -7.1498008193090E-01
    21  2.0000000000000E-01 -7.7489327211575E-01
    22  2.1000000000000E-01 -8.3479576678159E-01
    23  2.2000000000000E-01 -8.9437339511696E-01
    24  2.3000000000000E-01 -9.5332441252583E-01
    25  2.4000000000000E-01 -1.0113611327530E+00
    26  2.5000000000000E-01 -1.0682112681730E+00
    27  2.6000000000000E-01 -1.1236189727885E+00
    28  2.7000000000000E-01 -1.1773455883948E+00
    29  2.8000000000000E-01 -1.2291701001695E+00
    30  2.9000000000000E-01 -1.2788893135412E+00
    31  3.0000000000000E-01 -1.3263177694492E+00
    32  3.1000000000000E-01 -1.3712874199388E+00
    33  3.2000000000000E-01 -1.4136470903377E+00
    34  3.3000000000000E-01 -1.4532617579480E+00
    35  3.4000000000000E-01 -1.4900116801939E+00
    36  3.5000000000000E-01 -1.5237914074183E+00
    37  3.6000000000000E-01 -1.5545087169943E+00
    38  3.7000000000000E-01 -1.5820835060644E+00
    39  3.8000000000000E-01 -1.6064466800400E+00
    40  3.9000000000000E-01 -1.6275390729868E+00
    41  4.0000000000000E-01 -1.6453104342134E+00
    42  4.1000000000000E-01 -1.6597185127993E+00
    43  4.2000000000000E-01 -1.6707282685115E+00
    44  4.3000000000000E-01 -1.6783112336243E+00
    45  4.4000000000000E-01 -1.6824450456564E+00
    46  4.5000000000000E-01 -1.6831131660780E+00
    47  4.6000000000000E-01 -1.6803047947051E+00
    48  4.7000000000000E-01 -1.6740149839165E+00
    49  4.8000000000000E-01 -1.6642449511084E+00
    50  4.9000000000000E-01 -1.6510025820679E+00
    51  5.0000000000000E-01 -1.6343031123261E+00
    52  5.1000000000000E-01 -1.6141699681564E+00
    53  5.2000000000000E-01 -1.5906357438431E+00
    54  5.3000000000000E-01 -1.5637432872642E+00
    55  5.4000000000000E-01 -1.5335468618181E+00
    56  5.5000000000000E-01 -1.5001133493678E+00
    57  5.6000000000000E-01 -1.4635234562622E+00
    58  5.7000000000000E-01 -1.4238728826886E+00
    59  5.8000000000000E-01 -1.3812734146632E+00
    60  5.9000000000000E-01 -1.3358538979142E+00
    61  6.0000000000000E-01 -1.2877610537764E+00
    62  6.1000000000000E-01 -1.2371600989849E+00
    63  6.2000000000000E-01 -1.1842351339258E+00
    64  6.3000000000000E-01 -1.1291892674198E+00
    65  6.4000000000000E-01 -1.0722444504438E+00
    66  6.5000000000000E-01 -1.0136409962431E+00
    67  6.6000000000000E-01 -9.5363676999148E-01
    68  6.7000000000000E-01 -8.9250603739079E-01
    69  6.8000000000000E-01 -8.3053796827740E-01
    70  6.9000000000000E-01 -7.6803479827516E-01
    71  7.0000000000000E-01 -7.0530965869048E-01
    72  7.1000000000000E-01 -6.4268409203429E-01
    73  7.2000000000000E-01 -5.8048527764806E-01
    74  7.3000000000000E-01 -5.1904299876084E-01
    75  7.4000000000000E-01 -4.5868638877802E-01
    76  7.5000000000000E-01 -3.9974050056593E-01
    77  7.6000000000000E-01 -3.4252274782541E-01
    78  7.7000000000000E-01 -2.8733927222792E-01
    79  7.8000000000000E-01 -2.3448129371779E-01
    80  7.9000000000000E-01 -1.8422150417483E-01
    81  8.0000000000000E-01 -1.3681056641389E-01
    82  8.1000000000000E-01 -9.2473781216642E-02
    83  8.2000000000000E-01 -5.1407984712797E-02
    84  8.3000000000000E-01 -1.3778736938189E-02
    85  8.4000000000000E-01  2.0282140197673E-02
    86  8.5000000000000E-01  5.0678620975821E-02
    87  8.6000000000000E-01  7.7352080110701E-02
    88  8.7000000000000E-01  1.0028239898956E-01
    89  8.8000000000000E-01  1.1948853627779E-01
    90  8.9000000000000E-01  1.3502853258894E-01
    91  9.0000000000000E-01  1.4699892690860E-01
    92  9.1000000000000E-01  1.5553357098071E-01
    93  9.2000000000000E-01  1.6080183677131E-01
    94  9.3000000000000E-01  1.6300622126810E-01
    95  9.4000000000000E-01  1.6237936209693E-01
    96  9.5000000000000E-01  1.5918048657851E-01
    97  9.6000000000000E-01  1.5369132575110E-01
    98  9.7000000000000E-01  1.4621153338975E-01
    99  9.8000000000000E-01  1.3705365800710E-01
   100  9.9000000000000E-01  1.2653772299592E-01
   101  1.0000000000000E+00  1.1498548197950E-01
   102  1.0100000000000E+00  1.0271453311935E-01
   103  1.0200000000000E+00  9.0036445945737E-02
   104  1.0300000000000E+00  7.7258804489353E-02
   105  1.0400000000000E+00  6.4681458921677E-02
   106  1.0500000000000E+00  5.2591351706156E-02
   107  1.0600000000000E+00  4.1257501345229E-02
   108  1.0700000000000E+00  3.0926117624381E-02
   109  1.0800000000000E+00  2.1822711624754E-02
   110  1.0900000000000E+00  1.4151305518468E-02
   111  1.1000000000000E+00  8.0500969272210E-03
   112  1.1100000000000E+00  3.6211118582515E-03
   113  1.1200000000000E+00  9.2402690076602E-04
   114  1.1300000000000E+00  5.0462541604954E-06
   115  1.1400000000000E+00  5.9444773875857E-06
   116  1.1500000000000E+00 -3.3015888722485E-07
   117  1.16  0.
   118  1.17  0.
   119  1.18  0.
   120  1.19  0.
   121  1.20  0.
   122  1.21  0.
   123  1.22  0.
   124  1.23  0.
   125  1.24  0.
   126  1.25  0.
   127  1.26  0.
   128  1.27  0.
   129  1.28  0.
   130  1.29  0.
   131  1.30  0.
   132  1.31  0.
   133  1.32  0.
   134  1.33  0.
   135  1.34  0.
   136  1.35  0.
   137  1.36  0.
   138  1.37  0.
   139  1.38  0.
   140  1.39  0.
   141  1.40  0.
   142  1.41  0.
   143  1.42  0.
   144  1.43  0.
   145  1.44  0.
   146  1.45  0.
   147  1.46  0.
   148  1.47  0.
   149  1.48  0.
   150  1.49  0.
   151  1.50  0.
   152  1.51  0.
   153  1.52  0.
   154  1.53  0.
   155  1.54  0.
   156  1.55  0.
   157  1.56  0.
   158  1.57  0.
   159  1.58  0.
   160  1.59  0.
   161  1.60  0.
   162  1.61  0.
   163  1.62  0.
   164  1.63  0.
   165  1.64  0.
   166  1.65  0.
   167  1.66  0.
   168  1.67  0.
   169  1.68  0.
   170  1.69  0.
   171  1.70  0.
   172  1.71  0.
   173  1.72  0.
   174  1.73  0.
   175  1.74  0.
   176  1.75  0.
   177  1.76  0.
   178  1.77  0.
   179  1.78  0.
   180  1.79  0.
   181  1.80  0.
   182  1.81  0.
   183  1.82  0.
   184  1.83  0.
   185  1.84  0.
   186  1.85  0.
   187  1.86  0.
   188  1.87  0.
   189  1.88  0.
   190  1.89  0.
   191  1.90  0.
   192  1.91  0.
   193  1.92  0.
   194  1.93  0.
   195  1.94  0.
   196  1.95  0.
   197  1.96  0.
   198  1.97  0.
   199  1.98  0.
   200  1.99  0.
   201  2.00  0.
   202  2.01  0.
   203  2.02  0.
   204  2.03  0.
   205  2.04  0.
   206  2.05  0.
   207  2.06  0.
   208  2.07  0.
   209  2.08  0.
   210  2.09  0.
   211  2.10  0.
   212  2.11  0.
   213  2.12  0.
   214  2.13  0.
   215  2.14  0.
   216  2.15  0.
   217  2.16  0.
   218  2.17  0.
   219  2.18  0.
   220  2.19  0.
   221  2.20  0.
   222  2.21  0.
   223  2.22  0.
   224  2.23  0.
   225  2.24  0.
   226  2.25  0.
   227  2.26  0.
   228  2.27  0.
   229  2.28  0.
   230  2.29  0.
   231  2.30  0.
   232  2.31  0.
   233  2.32  0.
   234  2.33  0.
   235  2.34  0.
   236  2.35  0.
   237  2.36  0.
   238  2.37  0.
   239  2.38  0.
   240  2.39  0.
   241  2.40  0.
   242  2.41  0.
   243  2.42  0.
   244  2.43  0.
   245  2.44  0.
   246  2.45  0.
   247  2.46  0.
   248  2.47  0.
   249  2.48  0.
   250  2.49  0.
   251  2.50  0.
   252  2.51  0.
   253  2.52  0.
   254  2.53  0.
   255  2.54  0.
   256  2.55  0.
   257  2.56  0.
   258  2.57  0.
   259  2.58  0.
   260  2.59  0.
   261  2.60  0.
   262  2.61  0.
   263  2.62  0.
   264  2.63  0.
   265  2.64  0.
   266  2.65  0.
   267  2.66  0.
   268  2.67  0.
   269  2.68  0.
   270  2.69  0.
   271  2.70  0.
   272  2.71  0.
   273  2.72  0.
   274  2.73  0.
   275  2.74  0.
   276  2.75  0.
   277  2.76  0.
   278  2.77  0.
   279  2.78  0.
   280  2.79  0.
   281  2.80  0.
   282  2.81  0.
   283  2.82  0.
   284  2.83  0.
   285  2.84  0.
   286  2.85  0.
   287  2.86  0.
   288  2.87  0.
   289  2.88  0.
   290  2.89  0.
   291  2.90  0.
   292  2.91  0.
   293  2.92  0.
   294  2.93  0.
   295  2.94  0.
   296  2.95  0.
   297  2.96  0.
   298  2.97  0.
   299  2.98  0.
   300  2.99  0.
   301  3.00  0.
   302  3.01  0.
   303  3.02  0.
   304  3.03  0.
   305  3.04  0.
   306  3.05  0.
   307  3.06  0.
   308  3.07  0.
   309  3.08  0.
   310  3.09  0.
   311  3.10  0.
   312  3.11  0.
   313  3.12  0.
   314  3.13  0.
   315  3.14  0.
   316  3.15  0.
   317  3.16  0.
   318  3.17  0.
   319  3.18  0.
   320  3.19  0.
   321  3.20  0.
   322  3.21  0.
   323  3.22  0.
   324  3.23  0.
   325  3.24  0.
   326  3.25  0.
   327  3.26  0.
   328  3.27  0.
   329  3.28  0.
   330  3.29  0.
   331  3.30  0.
   332  3.31  0.
   333  3.32  0.
   334  3.33  0.
   335  3.34  0.
   336  3.35  0.
   337  3.36  0.
   338  3.37  0.
   339  3.38  0.
   340  3.39  0.
   341  3.40  0.
   342  3.41  0.
   343  3.42  0.
   344  3.43  0.
   345  3.44  0.
   346  3.45  0.
   347  3.46  0.
   348  3.47  0.
   349  3.48  0.
   350  3.49  0.
   351  3.50  0.
   352  3.51  0.
   353  3.52  0.
   354  3.53  0.
   355  3.54  0.
   356  3.55  0.
   357  3.56  0.
   358  3.57  0.
   359  3.58  0.
   360  3.59  0.
   361  3.60  0.
   362  3.61  0.
   363  3.62  0.
   364  3.63  0.
   365  3.64  0.
   366  3.65  0.
   367  3.66  0.
   368  3.67  0.
   369  3.68  0.
   370  3.69  0.
   371  3.70  0.
   372  3.71  0.
   373  3.72  0.
   374  3.73  0.
   375  3.74  0.
   376  3.75  0.
   377  3.76  0.
   378  3.77  0.
   379  3.78  0.
   380  3.79  0.
   381  3.80  0.
   382  3.81  0.
   383  3.82  0.
   384  3.83  0.
   385  3.84  0.
   386  3.85  0.
   387  3.86  0.
   388  3.87  0.
   389  3.88  0.
   390  3.89  0.
   391  3.90  0.
   392  3.91  0.
   393  3.92  0.
   394  3.93  0.
   395  3.94  0.
   396  3.95  0.
   397  3.96  0.
   398  3.97  0.
   399  3.98  0.
   400  3.99  0.
   401  4.00  0.
   402  4.01  0.
   403  4.02  0.
   404  4.03  0.
   405  4.04  0.
   406  4.05  0.
   407  4.06  0.
   408  4.07  0.
   409  4.08  0.
   410  4.09  0.